 108
Step =     0, Time =      0.00000000
Ar    -8.57900000    -8.57900000    -8.57900000
Ar    -8.57900000    -5.71933333    -5.71933333
Ar    -5.71933333    -8.57900000    -5.71933333
Ar    -5.71933333    -5.71933333    -8.57900000
Ar    -8.57900000    -8.57900000    -2.85966667
Ar    -8.57900000    -5.71933333     0.00000000
Ar    -5.71933333    -8.57900000     0.00000000
Ar    -5.71933333    -5.71933333    -2.85966667
Ar    -8.57900000    -8.57900000     2.85966667
Ar    -8.57900000    -5.71933333     5.71933333
Ar    -5.71933333    -8.57900000     5.71933333
Ar    -5.71933333    -5.71933333     2.85966667
Ar    -8.57900000    -2.85966667    -8.57900000
Ar    -8.57900000     0.00000000    -5.71933333
Ar    -5.71933333    -2.85966667    -5.71933333
Ar    -5.71933333     0.00000000    -8.57900000
Ar    -8.57900000    -2.85966667    -2.85966667
Ar    -8.57900000     0.00000000     0.00000000
Ar    -5.71933333    -2.85966667     0.00000000
Ar    -5.71933333     0.00000000    -2.85966667
Ar    -8.57900000    -2.85966667     2.85966667
Ar    -8.57900000     0.00000000     5.71933333
Ar    -5.71933333    -2.85966667     5.71933333
Ar    -5.71933333     0.00000000     2.85966667
Ar    -8.57900000     2.85966667    -8.57900000
Ar    -8.57900000     5.71933333    -5.71933333
Ar    -5.71933333     2.85966667    -5.71933333
Ar    -5.71933333     5.71933333    -8.57900000
Ar    -8.57900000     2.85966667    -2.85966667
Ar    -8.57900000     5.71933333     0.00000000
Ar    -5.71933333     2.85966667     0.00000000
Ar    -5.71933333     5.71933333    -2.85966667
Ar    -8.57900000     2.85966667     2.85966667
Ar    -8.57900000     5.71933333     5.71933333
Ar    -5.71933333     2.85966667     5.71933333
Ar    -5.71933333     5.71933333     2.85966667
Ar    -2.85966667    -8.57900000    -8.57900000
Ar    -2.85966667    -5.71933333    -5.71933333
Ar     0.00000000    -8.57900000    -5.71933333
Ar     0.00000000    -5.71933333    -8.57900000
Ar    -2.85966667    -8.57900000    -2.85966667
Ar    -2.85966667    -5.71933333     0.00000000
Ar     0.00000000    -8.57900000     0.00000000
Ar     0.00000000    -5.71933333    -2.85966667
Ar    -2.85966667    -8.57900000     2.85966667
Ar    -2.85966667    -5.71933333     5.71933333
Ar     0.00000000    -8.57900000     5.71933333
Ar     0.00000000    -5.71933333     2.85966667
Ar    -2.85966667    -2.85966667    -8.57900000
Ar    -2.85966667     0.00000000    -5.71933333
Ar     0.00000000    -2.85966667    -5.71933333
Ar     0.00000000     0.00000000    -8.57900000
Ar    -2.85966667    -2.85966667    -2.85966667
Ar    -2.85966667     0.00000000     0.00000000
Ar     0.00000000    -2.85966667     0.00000000
Ar     0.00000000     0.00000000    -2.85966667
Ar    -2.85966667    -2.85966667     2.85966667
Ar    -2.85966667     0.00000000     5.71933333
Ar     0.00000000    -2.85966667     5.71933333
Ar     0.00000000     0.00000000     2.85966667
Ar    -2.85966667     2.85966667    -8.57900000
Ar    -2.85966667     5.71933333    -5.71933333
Ar     0.00000000     2.85966667    -5.71933333
Ar     0.00000000     5.71933333    -8.57900000
Ar    -2.85966667     2.85966667    -2.85966667
Ar    -2.85966667     5.71933333     0.00000000
Ar     0.00000000     2.85966667     0.00000000
Ar     0.00000000     5.71933333    -2.85966667
Ar    -2.85966667     2.85966667     2.85966667
Ar    -2.85966667     5.71933333     5.71933333
Ar     0.00000000     2.85966667     5.71933333
Ar     0.00000000     5.71933333     2.85966667
Ar     2.85966667    -8.57900000    -8.57900000
Ar     2.85966667    -5.71933333    -5.71933333
Ar     5.71933333    -8.57900000    -5.71933333
Ar     5.71933333    -5.71933333    -8.57900000
Ar     2.85966667    -8.57900000    -2.85966667
Ar     2.85966667    -5.71933333     0.00000000
Ar     5.71933333    -8.57900000     0.00000000
Ar     5.71933333    -5.71933333    -2.85966667
Ar     2.85966667    -8.57900000     2.85966667
Ar     2.85966667    -5.71933333     5.71933333
Ar     5.71933333    -8.57900000     5.71933333
Ar     5.71933333    -5.71933333     2.85966667
Ar     2.85966667    -2.85966667    -8.57900000
Ar     2.85966667     0.00000000    -5.71933333
Ar     5.71933333    -2.85966667    -5.71933333
Ar     5.71933333     0.00000000    -8.57900000
Ar     2.85966667    -2.85966667    -2.85966667
Ar     2.85966667     0.00000000     0.00000000
Ar     5.71933333    -2.85966667     0.00000000
Ar     5.71933333     0.00000000    -2.85966667
Ar     2.85966667    -2.85966667     2.85966667
Ar     2.85966667     0.00000000     5.71933333
Ar     5.71933333    -2.85966667     5.71933333
Ar     5.71933333     0.00000000     2.85966667
Ar     2.85966667     2.85966667    -8.57900000
Ar     2.85966667     5.71933333    -5.71933333
Ar     5.71933333     2.85966667    -5.71933333
Ar     5.71933333     5.71933333    -8.57900000
Ar     2.85966667     2.85966667    -2.85966667
Ar     2.85966667     5.71933333     0.00000000
Ar     5.71933333     2.85966667     0.00000000
Ar     5.71933333     5.71933333    -2.85966667
Ar     2.85966667     2.85966667     2.85966667
Ar     2.85966667     5.71933333     5.71933333
Ar     5.71933333     2.85966667     5.71933333
Ar     5.71933333     5.71933333     2.85966667
 108
Step =     1, Time =      0.00500000
Ar    -8.57899732    -8.57899732    -8.57899732
Ar    -8.57899732    -5.71933154    -5.71933154
Ar    -5.71933154    -8.57899732    -5.71933154
Ar    -5.71933154    -5.71933154    -8.57899732
Ar    -8.57899732    -8.57899732    -2.85966577
Ar    -8.57899732    -5.71933154     0.00000000
Ar    -5.71933154    -8.57899732     0.00000000
Ar    -5.71933154    -5.71933154    -2.85966577
Ar    -8.57899732    -8.57899732     2.85966577
Ar    -8.57899732    -5.71933154     5.71933154
Ar    -5.71933154    -8.57899732     5.71933154
Ar    -5.71933154    -5.71933154     2.85966577
Ar    -8.57899732    -2.85966577    -8.57899732
Ar    -8.57899732     0.00000000    -5.71933154
Ar    -5.71933154    -2.85966577    -5.71933154
Ar    -5.71933154     0.00000000    -8.57899732
Ar    -8.57899732    -2.85966577    -2.85966577
Ar    -8.57899732     0.00000000     0.00000000
Ar    -5.71933154    -2.85966577     0.00000000
Ar    -5.71933154     0.00000000    -2.85966577
Ar    -8.57899732    -2.85966577     2.85966577
Ar    -8.57899732     0.00000000     5.71933154
Ar    -5.71933154    -2.85966577     5.71933154
Ar    -5.71933154     0.00000000     2.85966577
Ar    -8.57899732     2.85966577    -8.57899732
Ar    -8.57899732     5.71933154    -5.71933154
Ar    -5.71933154     2.85966577    -5.71933154
Ar    -5.71933154     5.71933154    -8.57899732
Ar    -8.57899732     2.85966577    -2.85966577
Ar    -8.57899732     5.71933154     0.00000000
Ar    -5.71933154     2.85966577     0.00000000
Ar    -5.71933154     5.71933154    -2.85966577
Ar    -8.57899732     2.85966577     2.85966577
Ar    -8.57899732     5.71933154     5.71933154
Ar    -5.71933154     2.85966577     5.71933154
Ar    -5.71933154     5.71933154     2.85966577
Ar    -2.85966577    -8.57899732    -8.57899732
Ar    -2.85966577    -5.71933154    -5.71933154
Ar     0.00000000    -8.57899732    -5.71933154
Ar     0.00000000    -5.71933154    -8.57899732
Ar    -2.85966577    -8.57899732    -2.85966577
Ar    -2.85966577    -5.71933154     0.00000000
Ar     0.00000000    -8.57899732     0.00000000
Ar     0.00000000    -5.71933154    -2.85966577
Ar    -2.85966577    -8.57899732     2.85966577
Ar    -2.85966577    -5.71933154     5.71933154
Ar     0.00000000    -8.57899732     5.71933154
Ar     0.00000000    -5.71933154     2.85966577
Ar    -2.85966577    -2.85966577    -8.57899732
Ar    -2.85966577     0.00000000    -5.71933154
Ar     0.00000000    -2.85966577    -5.71933154
Ar     0.00000000     0.00000000    -8.57899732
Ar    -2.85966577    -2.85966577    -2.85966577
Ar    -2.85966577     0.00000000     0.00000000
Ar     0.00000000    -2.85966577     0.00000000
Ar     0.00000000     0.00000000    -2.85966577
Ar    -2.85966577    -2.85966577     2.85966577
Ar    -2.85966577     0.00000000     5.71933154
Ar     0.00000000    -2.85966577     5.71933154
Ar     0.00000000     0.00000000     2.85966577
Ar    -2.85966577     2.85966577    -8.57899732
Ar    -2.85966577     5.71933154    -5.71933154
Ar     0.00000000     2.85966577    -5.71933154
Ar     0.00000000     5.71933154    -8.57899732
Ar    -2.85966577     2.85966577    -2.85966577
Ar    -2.85966577     5.71933154     0.00000000
Ar     0.00000000     2.85966577     0.00000000
Ar     0.00000000     5.71933154    -2.85966577
Ar    -2.85966577     2.85966577     2.85966577
Ar    -2.85966577     5.71933154     5.71933154
Ar     0.00000000     2.85966577     5.71933154
Ar     0.00000000     5.71933154     2.85966577
Ar     2.85966577    -8.57899732    -8.57899732
Ar     2.85966577    -5.71933154    -5.71933154
Ar     5.71933154    -8.57899732    -5.71933154
Ar     5.71933154    -5.71933154    -8.57899732
Ar     2.85966577    -8.57899732    -2.85966577
Ar     2.85966577    -5.71933154     0.00000000
Ar     5.71933154    -8.57899732     0.00000000
Ar     5.71933154    -5.71933154    -2.85966577
Ar     2.85966577    -8.57899732     2.85966577
Ar     2.85966577    -5.71933154     5.71933154
Ar     5.71933154    -8.57899732     5.71933154
Ar     5.71933154    -5.71933154     2.85966577
Ar     2.85966577    -2.85966577    -8.57899732
Ar     2.85966577     0.00000000    -5.71933154
Ar     5.71933154    -2.85966577    -5.71933154
Ar     5.71933154     0.00000000    -8.57899732
Ar     2.85966577    -2.85966577    -2.85966577
Ar     2.85966577     0.00000000     0.00000000
Ar     5.71933154    -2.85966577     0.00000000
Ar     5.71933154     0.00000000    -2.85966577
Ar     2.85966577    -2.85966577     2.85966577
Ar     2.85966577     0.00000000     5.71933154
Ar     5.71933154    -2.85966577     5.71933154
Ar     5.71933154     0.00000000     2.85966577
Ar     2.85966577     2.85966577    -8.57899732
Ar     2.85966577     5.71933154    -5.71933154
Ar     5.71933154     2.85966577    -5.71933154
Ar     5.71933154     5.71933154    -8.57899732
Ar     2.85966577     2.85966577    -2.85966577
Ar     2.85966577     5.71933154     0.00000000
Ar     5.71933154     2.85966577     0.00000000
Ar     5.71933154     5.71933154    -2.85966577
Ar     2.85966577     2.85966577     2.85966577
Ar     2.85966577     5.71933154     5.71933154
Ar     5.71933154     2.85966577     5.71933154
Ar     5.71933154     5.71933154     2.85966577
 108
Step =     2, Time =      0.01000000
Ar    -8.57898926    -8.57898926    -8.57898926
Ar    -8.57898926    -5.71932617    -5.71932617
Ar    -5.71932617    -8.57898926    -5.71932617
Ar    -5.71932617    -5.71932617    -8.57898926
Ar    -8.57898926    -8.57898926    -2.85966309
Ar    -8.57898926    -5.71932617     0.00000000
Ar    -5.71932617    -8.57898926     0.00000000
Ar    -5.71932617    -5.71932617    -2.85966309
Ar    -8.57898926    -8.57898926     2.85966309
Ar    -8.57898926    -5.71932617     5.71932617
Ar    -5.71932617    -8.57898926     5.71932617
Ar    -5.71932617    -5.71932617     2.85966309
Ar    -8.57898926    -2.85966309    -8.57898926
Ar    -8.57898926     0.00000000    -5.71932617
Ar    -5.71932617    -2.85966309    -5.71932617
Ar    -5.71932617     0.00000000    -8.57898926
Ar    -8.57898926    -2.85966309    -2.85966309
Ar    -8.57898926     0.00000000     0.00000000
Ar    -5.71932617    -2.85966309     0.00000000
Ar    -5.71932617     0.00000000    -2.85966309
Ar    -8.57898926    -2.85966309     2.85966309
Ar    -8.57898926     0.00000000     5.71932617
Ar    -5.71932617    -2.85966309     5.71932617
Ar    -5.71932617     0.00000000     2.85966309
Ar    -8.57898926     2.85966309    -8.57898926
Ar    -8.57898926     5.71932617    -5.71932617
Ar    -5.71932617     2.85966309    -5.71932617
Ar    -5.71932617     5.71932617    -8.57898926
Ar    -8.57898926     2.85966309    -2.85966309
Ar    -8.57898926     5.71932617     0.00000000
Ar    -5.71932617     2.85966309     0.00000000
Ar    -5.71932617     5.71932617    -2.85966309
Ar    -8.57898926     2.85966309     2.85966309
Ar    -8.57898926     5.71932617     5.71932617
Ar    -5.71932617     2.85966309     5.71932617
Ar    -5.71932617     5.71932617     2.85966309
Ar    -2.85966309    -8.57898926    -8.57898926
Ar    -2.85966309    -5.71932617    -5.71932617
Ar     0.00000000    -8.57898926    -5.71932617
Ar     0.00000000    -5.71932617    -8.57898926
Ar    -2.85966309    -8.57898926    -2.85966309
Ar    -2.85966309    -5.71932617     0.00000000
Ar     0.00000000    -8.57898926     0.00000000
Ar     0.00000000    -5.71932617    -2.85966309
Ar    -2.85966309    -8.57898926     2.85966309
Ar    -2.85966309    -5.71932617     5.71932617
Ar     0.00000000    -8.57898926     5.71932617
Ar     0.00000000    -5.71932617     2.85966309
Ar    -2.85966309    -2.85966309    -8.57898926
Ar    -2.85966309     0.00000000    -5.71932617
Ar     0.00000000    -2.85966309    -5.71932617
Ar     0.00000000     0.00000000    -8.57898926
Ar    -2.85966309    -2.85966309    -2.85966309
Ar    -2.85966309     0.00000000     0.00000000
Ar     0.00000000    -2.85966309     0.00000000
Ar     0.00000000     0.00000000    -2.85966309
Ar    -2.85966309    -2.85966309     2.85966309
Ar    -2.85966309     0.00000000     5.71932617
Ar     0.00000000    -2.85966309     5.71932617
Ar     0.00000000     0.00000000     2.85966309
Ar    -2.85966309     2.85966309    -8.57898926
Ar    -2.85966309     5.71932617    -5.71932617
Ar     0.00000000     2.85966309    -5.71932617
Ar     0.00000000     5.71932617    -8.57898926
Ar    -2.85966309     2.85966309    -2.85966309
Ar    -2.85966309     5.71932617     0.00000000
Ar     0.00000000     2.85966309     0.00000000
Ar     0.00000000     5.71932617    -2.85966309
Ar    -2.85966309     2.85966309     2.85966309
Ar    -2.85966309     5.71932617     5.71932617
Ar     0.00000000     2.85966309     5.71932617
Ar     0.00000000     5.71932617     2.85966309
Ar     2.85966309    -8.57898926    -8.57898926
Ar     2.85966309    -5.71932617    -5.71932617
Ar     5.71932617    -8.57898926    -5.71932617
Ar     5.71932617    -5.71932617    -8.57898926
Ar     2.85966309    -8.57898926    -2.85966309
Ar     2.85966309    -5.71932617     0.00000000
Ar     5.71932617    -8.57898926     0.00000000
Ar     5.71932617    -5.71932617    -2.85966309
Ar     2.85966309    -8.57898926     2.85966309
Ar     2.85966309    -5.71932617     5.71932617
Ar     5.71932617    -8.57898926     5.71932617
Ar     5.71932617    -5.71932617     2.85966309
Ar     2.85966309    -2.85966309    -8.57898926
Ar     2.85966309     0.00000000    -5.71932617
Ar     5.71932617    -2.85966309    -5.71932617
Ar     5.71932617     0.00000000    -8.57898926
Ar     2.85966309    -2.85966309    -2.85966309
Ar     2.85966309     0.00000000     0.00000000
Ar     5.71932617    -2.85966309     0.00000000
Ar     5.71932617     0.00000000    -2.85966309
Ar     2.85966309    -2.85966309     2.85966309
Ar     2.85966309     0.00000000     5.71932617
Ar     5.71932617    -2.85966309     5.71932617
Ar     5.71932617     0.00000000     2.85966309
Ar     2.85966309     2.85966309    -8.57898926
Ar     2.85966309     5.71932617    -5.71932617
Ar     5.71932617     2.85966309    -5.71932617
Ar     5.71932617     5.71932617    -8.57898926
Ar     2.85966309     2.85966309    -2.85966309
Ar     2.85966309     5.71932617     0.00000000
Ar     5.71932617     2.85966309     0.00000000
Ar     5.71932617     5.71932617    -2.85966309
Ar     2.85966309     2.85966309     2.85966309
Ar     2.85966309     5.71932617     5.71932617
Ar     5.71932617     2.85966309     5.71932617
Ar     5.71932617     5.71932617     2.85966309
 108
Step =     3, Time =      0.01500000
Ar    -8.57897584    -8.57897584    -8.57897584
Ar    -8.57897584    -5.71931723    -5.71931723
Ar    -5.71931723    -8.57897584    -5.71931723
Ar    -5.71931723    -5.71931723    -8.57897584
Ar    -8.57897584    -8.57897584    -2.85965861
Ar    -8.57897584    -5.71931723     0.00000000
Ar    -5.71931723    -8.57897584     0.00000000
Ar    -5.71931723    -5.71931723    -2.85965861
Ar    -8.57897584    -8.57897584     2.85965861
Ar    -8.57897584    -5.71931723     5.71931723
Ar    -5.71931723    -8.57897584     5.71931723
Ar    -5.71931723    -5.71931723     2.85965861
Ar    -8.57897584    -2.85965861    -8.57897584
Ar    -8.57897584     0.00000000    -5.71931723
Ar    -5.71931723    -2.85965861    -5.71931723
Ar    -5.71931723     0.00000000    -8.57897584
Ar    -8.57897584    -2.85965861    -2.85965861
Ar    -8.57897584     0.00000000     0.00000000
Ar    -5.71931723    -2.85965861     0.00000000
Ar    -5.71931723     0.00000000    -2.85965861
Ar    -8.57897584    -2.85965861     2.85965861
Ar    -8.57897584     0.00000000     5.71931723
Ar    -5.71931723    -2.85965861     5.71931723
Ar    -5.71931723     0.00000000     2.85965861
Ar    -8.57897584     2.85965861    -8.57897584
Ar    -8.57897584     5.71931723    -5.71931723
Ar    -5.71931723     2.85965861    -5.71931723
Ar    -5.71931723     5.71931723    -8.57897584
Ar    -8.57897584     2.85965861    -2.85965861
Ar    -8.57897584     5.71931723     0.00000000
Ar    -5.71931723     2.85965861     0.00000000
Ar    -5.71931723     5.71931723    -2.85965861
Ar    -8.57897584     2.85965861     2.85965861
Ar    -8.57897584     5.71931723     5.71931723
Ar    -5.71931723     2.85965861     5.71931723
Ar    -5.71931723     5.71931723     2.85965861
Ar    -2.85965861    -8.57897584    -8.57897584
Ar    -2.85965861    -5.71931723    -5.71931723
Ar     0.00000000    -8.57897584    -5.71931723
Ar     0.00000000    -5.71931723    -8.57897584
Ar    -2.85965861    -8.57897584    -2.85965861
Ar    -2.85965861    -5.71931723     0.00000000
Ar     0.00000000    -8.57897584     0.00000000
Ar     0.00000000    -5.71931723    -2.85965861
Ar    -2.85965861    -8.57897584     2.85965861
Ar    -2.85965861    -5.71931723     5.71931723
Ar     0.00000000    -8.57897584     5.71931723
Ar     0.00000000    -5.71931723     2.85965861
Ar    -2.85965861    -2.85965861    -8.57897584
Ar    -2.85965861     0.00000000    -5.71931723
Ar     0.00000000    -2.85965861    -5.71931723
Ar     0.00000000     0.00000000    -8.57897584
Ar    -2.85965861    -2.85965861    -2.85965861
Ar    -2.85965861     0.00000000     0.00000000
Ar     0.00000000    -2.85965861     0.00000000
Ar     0.00000000     0.00000000    -2.85965861
Ar    -2.85965861    -2.85965861     2.85965861
Ar    -2.85965861     0.00000000     5.71931723
Ar     0.00000000    -2.85965861     5.71931723
Ar     0.00000000     0.00000000     2.85965861
Ar    -2.85965861     2.85965861    -8.57897584
Ar    -2.85965861     5.71931723    -5.71931723
Ar     0.00000000     2.85965861    -5.71931723
Ar     0.00000000     5.71931723    -8.57897584
Ar    -2.85965861     2.85965861    -2.85965861
Ar    -2.85965861     5.71931723     0.00000000
Ar     0.00000000     2.85965861     0.00000000
Ar     0.00000000     5.71931723    -2.85965861
Ar    -2.85965861     2.85965861     2.85965861
Ar    -2.85965861     5.71931723     5.71931723
Ar     0.00000000     2.85965861     5.71931723
Ar     0.00000000     5.71931723     2.85965861
Ar     2.85965861    -8.57897584    -8.57897584
Ar     2.85965861    -5.71931723    -5.71931723
Ar     5.71931723    -8.57897584    -5.71931723
Ar     5.71931723    -5.71931723    -8.57897584
Ar     2.85965861    -8.57897584    -2.85965861
Ar     2.85965861    -5.71931723     0.00000000
Ar     5.71931723    -8.57897584     0.00000000
Ar     5.71931723    -5.71931723    -2.85965861
Ar     2.85965861    -8.57897584     2.85965861
Ar     2.85965861    -5.71931723     5.71931723
Ar     5.71931723    -8.57897584     5.71931723
Ar     5.71931723    -5.71931723     2.85965861
Ar     2.85965861    -2.85965861    -8.57897584
Ar     2.85965861     0.00000000    -5.71931723
Ar     5.71931723    -2.85965861    -5.71931723
Ar     5.71931723     0.00000000    -8.57897584
Ar     2.85965861    -2.85965861    -2.85965861
Ar     2.85965861     0.00000000     0.00000000
Ar     5.71931723    -2.85965861     0.00000000
Ar     5.71931723     0.00000000    -2.85965861
Ar     2.85965861    -2.85965861     2.85965861
Ar     2.85965861     0.00000000     5.71931723
Ar     5.71931723    -2.85965861     5.71931723
Ar     5.71931723     0.00000000     2.85965861
Ar     2.85965861     2.85965861    -8.57897584
Ar     2.85965861     5.71931723    -5.71931723
Ar     5.71931723     2.85965861    -5.71931723
Ar     5.71931723     5.71931723    -8.57897584
Ar     2.85965861     2.85965861    -2.85965861
Ar     2.85965861     5.71931723     0.00000000
Ar     5.71931723     2.85965861     0.00000000
Ar     5.71931723     5.71931723    -2.85965861
Ar     2.85965861     2.85965861     2.85965861
Ar     2.85965861     5.71931723     5.71931723
Ar     5.71931723     2.85965861     5.71931723
Ar     5.71931723     5.71931723     2.85965861
 108
Step =     4, Time =      0.02000000
Ar    -8.57895705    -8.57895705    -8.57895705
Ar    -8.57895705    -5.71930470    -5.71930470
Ar    -5.71930470    -8.57895705    -5.71930470
Ar    -5.71930470    -5.71930470    -8.57895705
Ar    -8.57895705    -8.57895705    -2.85965235
Ar    -8.57895705    -5.71930470     0.00000000
Ar    -5.71930470    -8.57895705     0.00000000
Ar    -5.71930470    -5.71930470    -2.85965235
Ar    -8.57895705    -8.57895705     2.85965235
Ar    -8.57895705    -5.71930470     5.71930470
Ar    -5.71930470    -8.57895705     5.71930470
Ar    -5.71930470    -5.71930470     2.85965235
Ar    -8.57895705    -2.85965235    -8.57895705
Ar    -8.57895705     0.00000000    -5.71930470
Ar    -5.71930470    -2.85965235    -5.71930470
Ar    -5.71930470     0.00000000    -8.57895705
Ar    -8.57895705    -2.85965235    -2.85965235
Ar    -8.57895705     0.00000000     0.00000000
Ar    -5.71930470    -2.85965235     0.00000000
Ar    -5.71930470     0.00000000    -2.85965235
Ar    -8.57895705    -2.85965235     2.85965235
Ar    -8.57895705     0.00000000     5.71930470
Ar    -5.71930470    -2.85965235     5.71930470
Ar    -5.71930470     0.00000000     2.85965235
Ar    -8.57895705     2.85965235    -8.57895705
Ar    -8.57895705     5.71930470    -5.71930470
Ar    -5.71930470     2.85965235    -5.71930470
Ar    -5.71930470     5.71930470    -8.57895705
Ar    -8.57895705     2.85965235    -2.85965235
Ar    -8.57895705     5.71930470     0.00000000
Ar    -5.71930470     2.85965235     0.00000000
Ar    -5.71930470     5.71930470    -2.85965235
Ar    -8.57895705     2.85965235     2.85965235
Ar    -8.57895705     5.71930470     5.71930470
Ar    -5.71930470     2.85965235     5.71930470
Ar    -5.71930470     5.71930470     2.85965235
Ar    -2.85965235    -8.57895705    -8.57895705
Ar    -2.85965235    -5.71930470    -5.71930470
Ar     0.00000000    -8.57895705    -5.71930470
Ar     0.00000000    -5.71930470    -8.57895705
Ar    -2.85965235    -8.57895705    -2.85965235
Ar    -2.85965235    -5.71930470     0.00000000
Ar     0.00000000    -8.57895705     0.00000000
Ar     0.00000000    -5.71930470    -2.85965235
Ar    -2.85965235    -8.57895705     2.85965235
Ar    -2.85965235    -5.71930470     5.71930470
Ar     0.00000000    -8.57895705     5.71930470
Ar     0.00000000    -5.71930470     2.85965235
Ar    -2.85965235    -2.85965235    -8.57895705
Ar    -2.85965235     0.00000000    -5.71930470
Ar     0.00000000    -2.85965235    -5.71930470
Ar     0.00000000     0.00000000    -8.57895705
Ar    -2.85965235    -2.85965235    -2.85965235
Ar    -2.85965235     0.00000000     0.00000000
Ar     0.00000000    -2.85965235     0.00000000
Ar     0.00000000     0.00000000    -2.85965235
Ar    -2.85965235    -2.85965235     2.85965235
Ar    -2.85965235     0.00000000     5.71930470
Ar     0.00000000    -2.85965235     5.71930470
Ar     0.00000000     0.00000000     2.85965235
Ar    -2.85965235     2.85965235    -8.57895705
Ar    -2.85965235     5.71930470    -5.71930470
Ar     0.00000000     2.85965235    -5.71930470
Ar     0.00000000     5.71930470    -8.57895705
Ar    -2.85965235     2.85965235    -2.85965235
Ar    -2.85965235     5.71930470     0.00000000
Ar     0.00000000     2.85965235     0.00000000
Ar     0.00000000     5.71930470    -2.85965235
Ar    -2.85965235     2.85965235     2.85965235
Ar    -2.85965235     5.71930470     5.71930470
Ar     0.00000000     2.85965235     5.71930470
Ar     0.00000000     5.71930470     2.85965235
Ar     2.85965235    -8.57895705    -8.57895705
Ar     2.85965235    -5.71930470    -5.71930470
Ar     5.71930470    -8.57895705    -5.71930470
Ar     5.71930470    -5.71930470    -8.57895705
Ar     2.85965235    -8.57895705    -2.85965235
Ar     2.85965235    -5.71930470     0.00000000
Ar     5.71930470    -8.57895705     0.00000000
Ar     5.71930470    -5.71930470    -2.85965235
Ar     2.85965235    -8.57895705     2.85965235
Ar     2.85965235    -5.71930470     5.71930470
Ar     5.71930470    -8.57895705     5.71930470
Ar     5.71930470    -5.71930470     2.85965235
Ar     2.85965235    -2.85965235    -8.57895705
Ar     2.85965235     0.00000000    -5.71930470
Ar     5.71930470    -2.85965235    -5.71930470
Ar     5.71930470     0.00000000    -8.57895705
Ar     2.85965235    -2.85965235    -2.85965235
Ar     2.85965235     0.00000000     0.00000000
Ar     5.71930470    -2.85965235     0.00000000
Ar     5.71930470     0.00000000    -2.85965235
Ar     2.85965235    -2.85965235     2.85965235
Ar     2.85965235     0.00000000     5.71930470
Ar     5.71930470    -2.85965235     5.71930470
Ar     5.71930470     0.00000000     2.85965235
Ar     2.85965235     2.85965235    -8.57895705
Ar     2.85965235     5.71930470    -5.71930470
Ar     5.71930470     2.85965235    -5.71930470
Ar     5.71930470     5.71930470    -8.57895705
Ar     2.85965235     2.85965235    -2.85965235
Ar     2.85965235     5.71930470     0.00000000
Ar     5.71930470     2.85965235     0.00000000
Ar     5.71930470     5.71930470    -2.85965235
Ar     2.85965235     2.85965235     2.85965235
Ar     2.85965235     5.71930470     5.71930470
Ar     5.71930470     2.85965235     5.71930470
Ar     5.71930470     5.71930470     2.85965235
 108
Step =     5, Time =      0.02500000
Ar    -8.57893289    -8.57893289    -8.57893289
Ar    -8.57893289    -5.71928859    -5.71928859
Ar    -5.71928859    -8.57893289    -5.71928859
Ar    -5.71928859    -5.71928859    -8.57893289
Ar    -8.57893289    -8.57893289    -2.85964430
Ar    -8.57893289    -5.71928859     0.00000000
Ar    -5.71928859    -8.57893289     0.00000000
Ar    -5.71928859    -5.71928859    -2.85964430
Ar    -8.57893289    -8.57893289     2.85964430
Ar    -8.57893289    -5.71928859     5.71928859
Ar    -5.71928859    -8.57893289     5.71928859
Ar    -5.71928859    -5.71928859     2.85964430
Ar    -8.57893289    -2.85964430    -8.57893289
Ar    -8.57893289     0.00000000    -5.71928859
Ar    -5.71928859    -2.85964430    -5.71928859
Ar    -5.71928859     0.00000000    -8.57893289
Ar    -8.57893289    -2.85964430    -2.85964430
Ar    -8.57893289     0.00000000     0.00000000
Ar    -5.71928859    -2.85964430     0.00000000
Ar    -5.71928859     0.00000000    -2.85964430
Ar    -8.57893289    -2.85964430     2.85964430
Ar    -8.57893289     0.00000000     5.71928859
Ar    -5.71928859    -2.85964430     5.71928859
Ar    -5.71928859     0.00000000     2.85964430
Ar    -8.57893289     2.85964430    -8.57893289
Ar    -8.57893289     5.71928859    -5.71928859
Ar    -5.71928859     2.85964430    -5.71928859
Ar    -5.71928859     5.71928859    -8.57893289
Ar    -8.57893289     2.85964430    -2.85964430
Ar    -8.57893289     5.71928859     0.00000000
Ar    -5.71928859     2.85964430     0.00000000
Ar    -5.71928859     5.71928859    -2.85964430
Ar    -8.57893289     2.85964430     2.85964430
Ar    -8.57893289     5.71928859     5.71928859
Ar    -5.71928859     2.85964430     5.71928859
Ar    -5.71928859     5.71928859     2.85964430
Ar    -2.85964430    -8.57893289    -8.57893289
Ar    -2.85964430    -5.71928859    -5.71928859
Ar     0.00000000    -8.57893289    -5.71928859
Ar     0.00000000    -5.71928859    -8.57893289
Ar    -2.85964430    -8.57893289    -2.85964430
Ar    -2.85964430    -5.71928859     0.00000000
Ar     0.00000000    -8.57893289     0.00000000
Ar     0.00000000    -5.71928859    -2.85964430
Ar    -2.85964430    -8.57893289     2.85964430
Ar    -2.85964430    -5.71928859     5.71928859
Ar     0.00000000    -8.57893289     5.71928859
Ar     0.00000000    -5.71928859     2.85964430
Ar    -2.85964430    -2.85964430    -8.57893289
Ar    -2.85964430     0.00000000    -5.71928859
Ar     0.00000000    -2.85964430    -5.71928859
Ar     0.00000000     0.00000000    -8.57893289
Ar    -2.85964430    -2.85964430    -2.85964430
Ar    -2.85964430     0.00000000     0.00000000
Ar     0.00000000    -2.85964430     0.00000000
Ar     0.00000000     0.00000000    -2.85964430
Ar    -2.85964430    -2.85964430     2.85964430
Ar    -2.85964430     0.00000000     5.71928859
Ar     0.00000000    -2.85964430     5.71928859
Ar     0.00000000     0.00000000     2.85964430
Ar    -2.85964430     2.85964430    -8.57893289
Ar    -2.85964430     5.71928859    -5.71928859
Ar     0.00000000     2.85964430    -5.71928859
Ar     0.00000000     5.71928859    -8.57893289
Ar    -2.85964430     2.85964430    -2.85964430
Ar    -2.85964430     5.71928859     0.00000000
Ar     0.00000000     2.85964430     0.00000000
Ar     0.00000000     5.71928859    -2.85964430
Ar    -2.85964430     2.85964430     2.85964430
Ar    -2.85964430     5.71928859     5.71928859
Ar     0.00000000     2.85964430     5.71928859
Ar     0.00000000     5.71928859     2.85964430
Ar     2.85964430    -8.57893289    -8.57893289
Ar     2.85964430    -5.71928859    -5.71928859
Ar     5.71928859    -8.57893289    -5.71928859
Ar     5.71928859    -5.71928859    -8.57893289
Ar     2.85964430    -8.57893289    -2.85964430
Ar     2.85964430    -5.71928859     0.00000000
Ar     5.71928859    -8.57893289     0.00000000