 108
Step =     0, Time =      0.00000000
Ar    -8.57900000    -8.57900000    -8.57900000
Ar    -8.57900000    -5.71933333    -5.71933333
Ar    -5.71933333    -8.57900000    -5.71933333
Ar    -5.71933333    -5.71933333    -8.57900000
Ar    -8.57900000    -8.57900000    -2.85966667
Ar    -8.57900000    -5.71933333     0.00000000
Ar    -5.71933333    -8.57900000     0.00000000
Ar    -5.71933333    -5.71933333    -2.85966667
Ar    -8.57900000    -8.57900000     2.85966667
Ar    -8.57900000    -5.71933333     5.71933333
Ar    -5.71933333    -8.57900000     5.71933333
Ar    -5.71933333    -5.71933333     2.85966667
Ar    -8.57900000    -2.85966667    -8.57900000
Ar    -8.57900000     0.00000000    -5.71933333
Ar    -5.71933333    -2.85966667    -5.71933333
Ar    -5.71933333     0.00000000    -8.57900000
Ar    -8.57900000    -2.85966667    -2.85966667
Ar    -8.57900000     0.00000000     0.00000000
Ar    -5.71933333    -2.85966667     0.00000000
Ar    -5.71933333     0.00000000    -2.85966667
Ar    -8.57900000    -2.85966667     2.85966667
Ar    -8.57900000     0.00000000     5.71933333
Ar    -5.71933333    -2.85966667     5.71933333
Ar    -5.71933333     0.00000000     2.85966667
Ar    -8.57900000     2.85966667    -8.57900000
Ar    -8.57900000     5.71933333    -5.71933333
Ar    -5.71933333     2.85966667    -5.71933333
Ar    -5.71933333     5.71933333    -8.57900000
Ar    -8.57900000     2.85966667    -2.85966667
Ar    -8.57900000     5.71933333     0.00000000
Ar    -5.71933333     2.85966667     0.00000000
Ar    -5.71933333     5.71933333    -2.85966667
Ar    -8.57900000     2.85966667     2.85966667
Ar    -8.57900000     5.71933333     5.71933333
Ar    -5.71933333     2.85966667     5.71933333
Ar    -5.71933333     5.71933333     2.85966667
Ar    -2.85966667    -8.57900000    -8.57900000
Ar    -2.85966667    -5.71933333    -5.71933333
Ar     0.00000000    -8.57900000    -5.71933333
Ar     0.00000000    -5.71933333    -8.57900000
Ar    -2.85966667    -8.57900000    -2.85966667
Ar    -2.85966667    -5.71933333     0.00000000
Ar     0.00000000    -8.57900000     0.00000000
Ar     0.00000000    -5.71933333    -2.85966667
Ar    -2.85966667    -8.57900000     2.85966667
Ar    -2.85966667    -5.71933333     5.71933333
Ar     0.00000000    -8.57900000     5.71933333
Ar     0.00000000    -5.71933333     2.85966667
Ar    -2.85966667    -2.85966667    -8.57900000
Ar    -2.85966667     0.00000000    -5.71933333
Ar     0.00000000    -2.85966667    -5.71933333
Ar     0.00000000     0.00000000    -8.57900000
Ar    -2.85966667    -2.85966667    -2.85966667
Ar    -2.85966667     0.00000000     0.00000000
Ar     0.00000000    -2.85966667     0.00000000
Ar     0.00000000     0.00000000    -2.85966667
Ar    -2.85966667    -2.85966667     2.85966667
Ar    -2.85966667     0.00000000     5.71933333
Ar     0.00000000    -2.85966667     5.71933333
Ar     0.00000000     0.00000000     2.85966667
Ar    -2.85966667     2.85966667    -8.57900000
Ar    -2.85966667     5.71933333    -5.71933333
Ar     0.00000000     2.85966667    -5.71933333
Ar     0.00000000     5.71933333    -8.57900000
Ar    -2.85966667     2.85966667    -2.85966667
Ar    -2.85966667     5.71933333     0.00000000
Ar     0.00000000     2.85966667     0.00000000
Ar     0.00000000     5.71933333    -2.85966667
Ar    -2.85966667     2.85966667     2.85966667
Ar    -2.85966667     5.71933333     5.71933333
Ar     0.00000000     2.85966667     5.71933333
Ar     0.00000000     5.71933333     2.85966667
Ar     2.85966667    -8.57900000    -8.57900000
Ar     2.85966667    -5.71933333    -5.71933333
Ar     5.71933333    -8.57900000    -5.71933333
Ar     5.71933333    -5.71933333    -8.57900000
Ar     2.85966667    -8.57900000    -2.85966667
Ar     2.85966667    -5.71933333     0.00000000
Ar     5.71933333    -8.57900000     0.00000000
Ar     5.71933333    -5.71933333    -2.85966667
Ar     2.85966667    -8.57900000     2.85966667
Ar     2.85966667    -5.71933333     5.71933333
Ar     5.71933333    -8.57900000     5.71933333
Ar     5.71933333    -5.71933333     2.85966667
Ar     2.85966667    -2.85966667    -8.57900000
Ar     2.85966667     0.00000000    -5.71933333
Ar     5.71933333    -2.85966667    -5.71933333
Ar     5.71933333     0.00000000    -8.57900000
Ar     2.85966667    -2.85966667    -2.85966667
Ar     2.85966667     0.00000000     0.00000000
Ar     5.71933333    -2.85966667     0.00000000
Ar     5.71933333     0.00000000    -2.85966667
Ar     2.85966667    -2.85966667     2.85966667
Ar     2.85966667     0.00000000     5.71933333
Ar     5.71933333    -2.85966667     5.71933333
Ar     5.71933333     0.00000000     2.85966667
Ar     2.85966667     2.85966667    -8.57900000
Ar     2.85966667     5.71933333    -5.71933333
Ar     5.71933333     2.85966667    -5.71933333
Ar     5.71933333     5.71933333    -8.57900000
Ar     2.85966667     2.85966667    -2.85966667
Ar     2.85966667     5.71933333     0.00000000
Ar     5.71933333     2.85966667     0.00000000
Ar     5.71933333     5.71933333    -2.85966667
Ar     2.85966667     2.85966667     2.85966667
Ar     2.85966667     5.71933333     5.71933333
Ar     5.71933333     2.85966667     5.71933333
Ar     5.71933333     5.71933333     2.85966667
 108
Step =     1, Time =      0.00500000
Ar    -8.57900000    -8.57900000    -8.57900000
Ar    -8.57900000    -5.71930105    -5.71930105
Ar    -5.71926877    -8.57903228    -5.71930105
Ar    -5.71926877    -5.71926877    -8.57906456
Ar    -8.57903363    -8.57903363    -2.85958663
Ar    -8.57900135    -5.71929970     0.00004776
Ar    -5.71926742    -8.57903363     0.00004776
Ar    -5.71923514    -5.71923514    -2.85965119
Ar    -8.57903498    -8.57903498     2.85973123
Ar    -8.57903498    -5.71926607     5.71930105
Ar    -5.71923379    -8.57906726     5.71930105
Ar    -5.71923379    -5.71923379     2.85966667
Ar    -8.57903768    -2.85954721    -8.57900000
Ar    -8.57900270     0.00005219    -5.71930105
Ar    -5.71923110    -2.85957949    -5.71930105
Ar    -5.71926607     0.00008447    -8.57906456
Ar    -8.57907131    -2.85958084    -2.85958663
Ar    -8.57900405     0.00005354     0.00004776
Ar    -5.71922975    -2.85958084     0.00004776
Ar    -5.71923244     0.00011810    -2.85965119
Ar    -8.57907266    -2.85958219     2.85973123
Ar    -8.57903768     0.00008717     5.71930105
Ar    -5.71919612    -2.85961447     5.71930105
Ar    -5.71923110     0.00011945     2.85966667
Ar    -8.57904038     2.85976621    -8.57900000
Ar    -8.57904038     5.71926607    -5.71930105
Ar    -5.71922840     2.85973393    -5.71930105
Ar    -5.71922840     5.71929835    -8.57906456
Ar    -8.57907401     2.85973258    -2.85958663
Ar    -8.57904173     5.71926742     0.00004776
Ar    -5.71922705     2.85973258     0.00004776
Ar    -5.71919477     5.71933198    -2.85965119
Ar    -8.57907535     2.85973123     2.85973123
Ar    -8.57907535     5.71930105     5.71930105
Ar    -5.71919342     2.85969895     5.71930105
Ar    -5.71919342     5.71933333     2.85966667
Ar    -2.85949971    -8.57900000    -8.57900000
Ar    -2.85949971    -5.71930105    -5.71930105
Ar     0.00009161    -8.57903228    -5.71930105
Ar     0.00009161    -5.71926877    -8.57906456
Ar    -2.85953333    -8.57903363    -2.85958663
Ar    -2.85950105    -5.71929970     0.00004776
Ar     0.00009296    -8.57903363     0.00004776
Ar     0.00012524    -5.71923514    -2.85965119
Ar    -2.85953468    -8.57903498     2.85973123
Ar    -2.85953468    -5.71926607     5.71930105
Ar     0.00012659    -8.57906726     5.71930105
Ar     0.00012659    -5.71923379     2.85966667
Ar    -2.85953738    -2.85954721    -8.57900000
Ar    -2.85950240     0.00005219    -5.71930105
Ar     0.00012928    -2.85957949    -5.71930105
Ar     0.00009430     0.00008447    -8.57906456
Ar    -2.85957101    -2.85958084    -2.85958663
Ar    -2.85950375     0.00005354     0.00004776
Ar     0.00013063    -2.85958084     0.00004776
Ar     0.00012793     0.00011810    -2.85965119
Ar    -2.85957236    -2.85958219     2.85973123
Ar    -2.85953738     0.00008717     5.71930105
Ar     0.00016426    -2.85961447     5.71930105
Ar     0.00012928     0.00011945     2.85966667
Ar    -2.85954008     2.85976621    -8.57900000
Ar    -2.85954008     5.71926607    -5.71930105
Ar     0.00013198     2.85973393    -5.71930105
Ar     0.00013198     5.71929835    -8.57906456
Ar    -2.85957371     2.85973258    -2.85958663
Ar    -2.85954143     5.71926742     0.00004776
Ar     0.00013333     2.85973258     0.00004776
Ar     0.00016561     5.71933198    -2.85965119
Ar    -2.85957506     2.85973123     2.85973123
Ar    -2.85957506     5.71930105     5.71930105
Ar     0.00016696     2.85969895     5.71930105
Ar     0.00016696     5.71933333     2.85966667
Ar     2.85980658    -8.57900000    -8.57900000
Ar     2.85980658    -5.71930105    -5.71930105
Ar     5.71925798    -8.57903228    -5.71930105
Ar     5.71925798    -5.71926877    -8.57906456
Ar     2.85977295    -8.57903363    -2.85958663
Ar     2.85980523    -5.71929970     0.00004776
Ar     5.71925933    -8.57903363     0.00004776
Ar     5.71929161    -5.71923514    -2.85965119
Ar     2.85977160    -8.57903498     2.85973123
Ar     2.85977160    -5.71926607     5.71930105
Ar     5.71929296    -8.57906726     5.71930105
Ar     5.71929296    -5.71923379     2.85966667
Ar     2.85976890    -2.85954721    -8.57900000
Ar     2.85980388     0.00005219    -5.71930105
Ar     5.71929566    -2.85957949    -5.71930105
Ar     5.71926068     0.00008447    -8.57906456
Ar     2.85973527    -2.85958084    -2.85958663
Ar     2.85980253     0.00005354     0.00004776
Ar     5.71929701    -2.85958084     0.00004776
Ar     5.71929431     0.00011810    -2.85965119
Ar     2.85973393    -2.85958219     2.85973123
Ar     2.85976890     0.00008717     5.71930105
Ar     5.71933063    -2.85961447     5.71930105
Ar     5.71929566     0.00011945     2.85966667
Ar     2.85976621     2.85976621    -8.57900000
Ar     2.85976621     5.71926607    -5.71930105
Ar     5.71929835     2.85973393    -5.71930105
Ar     5.71929835     5.71929835    -8.57906456
Ar     2.85973258     2.85973258    -2.85958663
Ar     2.85976486     5.71926742     0.00004776
Ar     5.71929970     2.85973258     0.00004776
Ar     5.71933198     5.71933198    -2.85965119
Ar     2.85973123     2.85973123     2.85973123
Ar     2.85973123     5.71930105     5.71930105
Ar     5.71933333     2.85969895     5.71930105
Ar     5.71933333     5.71933333     2.85966667
 108
Step =     2, Time =      0.01000000
Ar    -8.57900007    -8.57900008    -8.57900011
Ar    -8.57900008    -5.71726550    -5.71726578
Ar    -5.71519759    -8.58106764    -5.71726573
Ar    -5.71519748    -5.71519770    -8.58313542
Ar    -8.58115402    -8.58115395    -2.85453977
Ar    -8.57908641    -5.71717919     0.00305922
Ar    -5.71511127    -8.58115398     0.00305927
Ar    -5.71304340    -5.71304354    -2.85867508
Ar    -8.58124033    -8.58124025     2.86380170
Ar    -8.58124025    -5.71502537     5.71726571
Ar    -5.71295711    -8.58330816     5.71726565
Ar    -5.71295713    -5.71295727     2.85966656
Ar    -8.58141326    -2.85201528    -8.57900014
Ar    -8.57917281     0.00334343    -5.71726594
Ar    -5.71278431    -2.85408293    -5.71726531
Ar    -5.71502482     0.00541108    -8.58313526
Ar    -8.58356747    -2.85416910    -2.85453963
Ar    -8.57925914     0.00342975     0.00305906
Ar    -5.71269799    -2.85416949     0.00305956
Ar    -5.71287075     0.00756502    -2.85867508
Ar    -8.58365378    -2.85425564     2.86380197
Ar    -8.58141298     0.00558335     5.71726570
Ar    -5.71054358    -2.85632364     5.71726577
Ar    -5.71278448     0.00765130     2.85966656
Ar    -8.58158598     2.86604202    -8.57900013
Ar    -8.58158601     5.71502527    -5.71726609
Ar    -5.71261167     2.86397453    -5.71726531
Ar    -5.71261153     5.71709306    -8.58313556
Ar    -8.58374018     2.86388841    -2.85453978
Ar    -8.58167234     5.71511181     0.00305879
Ar    -5.71252534     2.86388795     0.00305957
Ar    -5.71045719     5.71924697    -2.85867520
Ar    -8.58382650     2.86380187     2.86380182
Ar    -8.58382644     5.71726538     5.71726526
Ar    -5.71037093     2.86173403     5.71726594
Ar    -5.71037093     5.71933347     2.85966656
Ar    -2.84897221    -8.57900014    -8.57900010
Ar    -2.84897217    -5.71726546    -5.71726549
Ar     0.00586787    -8.58106741    -5.71726596
Ar     0.00586798    -5.71519794    -8.58313519
Ar    -2.85112628    -8.58115432    -2.85453980
Ar    -2.84905872    -5.71717914     0.00305938
Ar     0.00595422    -8.58115375     0.00305905
Ar     0.00802175    -5.71304377    -2.85867507
Ar    -2.85121280    -8.58124063     2.86380180
Ar    -2.85121269    -5.71502501     5.71726590
Ar     0.00810806    -8.58330793     5.71726566
Ar     0.00810804    -5.71295750     2.85966656
Ar    -2.85138561    -2.85201529    -8.57900013
Ar    -2.84914521     0.00334328    -5.71726566
Ar     0.00828084    -2.85408291    -5.71726555
Ar     0.00604066     0.00541086    -8.58313503
Ar    -2.85353994    -2.85416943    -2.85453966
Ar    -2.84923176     0.00342961     0.00305921
Ar     0.00836718    -2.85416948     0.00305933
Ar     0.00819443     0.00756481    -2.85867507
Ar    -2.85362646    -2.85425597     2.86380207
Ar    -2.85138572     0.00558352     5.71726590
Ar     0.01052129    -2.85632363     5.71726578
Ar     0.00828072     0.00765108     2.85966656
Ar    -2.85155863     2.86604220    -8.57900013
Ar    -2.85155862     5.71502508    -5.71726580
Ar     0.00845352     2.86397453    -5.71726554
Ar     0.00845365     5.71709306    -8.58313533
Ar    -2.85371296     2.86388827    -2.85453981
Ar    -2.85164517     5.71511163     0.00305894
Ar     0.00853986     2.86388795     0.00305934
Ar     0.01060768     5.71924697    -2.85867520
Ar    -2.85379949     2.86380172     2.86380192
Ar    -2.85379939     5.71726551     5.71726546
Ar     0.01069396     2.86173402     5.71726594
Ar     0.01069397     5.71933348     2.85966656
Ar     2.86862798    -8.57900013    -8.57900010
Ar     2.86862802    -5.71726547    -5.71726549
Ar     5.71450647    -8.58106727    -5.71726617
Ar     5.71450657    -5.71519809    -8.58313530
Ar     2.86647422    -8.58115431    -2.85454003
Ar     2.86854146    -5.71717915     0.00305938
Ar     5.71459303    -8.58115362     0.00305870
Ar     5.71666046    -5.71304360    -2.85867523
Ar     2.86638767    -8.58124063     2.86380157
Ar     2.86638780    -5.71502500     5.71726614
Ar     5.71674699    -8.58330812     5.71726536
Ar     5.71674697    -5.71295733     2.85966654
Ar     2.86621488    -2.85201550    -8.57900012
Ar     2.86845496     0.00334329    -5.71726566
Ar     5.71691965    -2.85408274    -5.71726576
Ar     5.71467956     0.00541052    -8.58313514
Ar     2.86406086    -2.85416965    -2.85453988
Ar     2.86836839     0.00342962     0.00305922
Ar     5.71700620    -2.85416931     0.00305899
Ar     5.71683344     0.00756479    -2.85867523
Ar     2.86397432    -2.85425619     2.86380184
Ar     2.86621474     0.00558354     5.71726613
Ar     5.71916043    -2.85632377     5.71726548
Ar     5.71691995     0.00765107     2.85966654
Ar     2.86604183     2.86604197    -8.57900012
Ar     2.86604186     5.71502531    -5.71726580
Ar     5.71709262     2.86397489    -5.71726575
Ar     5.71709275     5.71709268    -8.58313544
Ar     2.86388782     2.86388804    -2.85454004
Ar     2.86595529     5.71511186     0.00305895
Ar     5.71717919     2.86388831     0.00305900
Ar     5.71924690     5.71924691    -2.85867535
Ar     2.86380127     2.86380149     2.86380168
Ar     2.86380138     5.71726575     5.71726570
Ar     5.71933341     2.86173406     5.71726564
Ar     5.71933341     5.71933342     2.85966654
 108
Step =     3, Time =      0.01500000
Ar    -8.57900027    -8.57900031    -8.57900041
Ar    -8.57900029    -5.71588685    -5.71588785
Ar    -5.71244008    -8.58244581    -5.71588767
Ar    -5.71243970    -5.71244050    -8.58589208
Ar    -8.58258965    -8.58258939    -2.85112253
Ar    -8.57914396    -5.71574324     0.00509822
Ar    -5.71229642    -8.58258951     0.00509841
Ar    -5.70884983    -5.70885033    -2.85801419
Ar    -8.58273326    -8.58273299     2.86655734
Ar    -8.58273299    -5.71215431     5.71588760
Ar    -5.70870631    -8.58617971     5.71588742
Ar    -5.70870638    -5.70870689     2.85966630
Ar    -8.58302161    -2.84691530    -8.57900050
Ar    -8.57928789     0.00557236    -5.71588844
Ar    -5.70841843    -2.85036113    -5.71588619
Ar    -5.71215234     0.00901817    -8.58589151
Ar    -8.58661193    -2.85050426    -2.85112202
Ar    -8.57943159     0.00571601     0.00509763
Ar    -5.70827479    -2.85050565     0.00509945
Ar    -5.70856250     0.01260754    -2.85801419
Ar    -8.58675551    -2.85064868     2.86655831
Ar    -8.58302058     0.00930412     5.71588758
Ar    -5.70468373    -2.85409575     5.71588785
Ar    -5.70841903     0.01275100     2.85966629
Ar    -8.58330919     2.87029054    -8.57900049
Ar    -8.58330927     5.71215396    -5.71588898
Ar    -5.70813111     2.86684528    -5.71588616
Ar    -5.70813065     5.71560030    -8.58589257
Ar    -8.58689947     2.86670240    -2.85112259
Ar    -8.58345294     5.71229841     0.00509664
Ar    -5.70798745     2.86670072     0.00509948
Ar    -5.70453985     5.71918953    -2.85801465
Ar    -8.58704307     2.86655794     2.86655773
Ar    -8.58704287     5.71588640     5.71588598
Ar    -5.70439642     2.86311143     5.71588846
Ar    -5.70439640     5.71933382     2.85966629
Ar    -2.84184385    -8.57900050    -8.57900038
Ar    -2.84184372    -5.71588671    -5.71588683
Ar     0.00977943    -8.58244495    -5.71588851
Ar     0.00977981    -5.71244135    -8.58589122
Ar    -2.84543366    -8.58259073    -2.85112265
Ar    -2.84198818    -5.71574308     0.00509878
Ar     0.00992315    -8.58258866     0.00509759
Ar     0.01336856    -5.70885116    -2.85801417
Ar    -2.84557806    -8.58273435     2.86655770
Ar    -2.84557762    -5.71215301     5.71588832
Ar     0.01351214    -8.58617889     5.71588744
Ar     0.01351207    -5.70870770     2.85966628
Ar    -2.84586594    -2.84691534    -8.57900047
Ar    -2.84213242     0.00557184    -5.71588742
Ar     0.01379996    -2.85036106    -5.71588701
Ar     0.01006726     0.00901738    -8.58589066
Ar    -2.84945670    -2.85050544    -2.85112212
Ar    -2.84227690     0.00571550     0.00509819
Ar     0.01394366    -2.85050560     0.00509865
Ar     0.01365598     0.01260677    -2.85801417
Ar    -2.84960109    -2.85064988     2.86655870
Ar    -2.84586632     0.00930476     5.71588830
Ar     0.01753362    -2.85409572     5.71588787
Ar     0.01379951     0.01275025     2.85966627
Ar    -2.84615463     2.87029118    -8.57900046
Ar    -2.84615457     5.71215326    -5.71588795
Ar     0.01408735     2.86684530    -5.71588699
Ar     0.01408783     5.71560030    -8.58589173
Ar    -2.84974536     2.86670189    -2.85112269
Ar    -2.84629904     5.71229773     0.00509721
Ar     0.01423108     2.86670072     0.00509868
Ar     0.01767752     5.71918955    -2.85801464
Ar    -2.84988978     2.86655741     2.86655812
Ar    -2.84988941     5.71588686     5.71588668
Ar     0.01782102     2.86311141     5.71588848
Ar     0.01782103     5.71933386     2.85966627
Ar     2.87459959    -8.57900047    -8.57900036
Ar     2.87459976    -5.71588672    -5.71588684
Ar     5.71128890    -8.58244444    -5.71588930
Ar     5.71128929    -5.71244191    -8.58589160
Ar     2.87101092    -8.58259071    -2.85112349
Ar     2.87445521    -5.71574308     0.00509880
Ar     5.71143341    -8.58258817     0.00509632
Ar     5.71487844    -5.70885055    -2.85801473
Ar     2.87086644    -8.58273434     2.86655683
Ar     2.87086693    -5.71215300     5.71588921
Ar     5.71502285    -8.58617958     5.71588632
Ar     5.71502274    -5.70870708     2.85966620
Ar     2.87057862    -2.84691613    -8.57900045
Ar     2.87431094     0.00557188    -5.71588744
Ar     5.71531017    -2.85036041    -5.71588779
Ar     5.71157782     0.00901613    -8.58589103
Ar     2.86698899    -2.85050623    -2.85112294
Ar     2.87416637     0.00571556     0.00509821
Ar     5.71545467    -2.85050496     0.00509738
Ar     5.71516696     0.01260670    -2.85801473
Ar     2.86684452    -2.85065069     2.86655784
Ar     2.87057811     0.00930483     5.71588919
Ar     5.71904509    -2.85409625     5.71588674
Ar     5.71531128     0.01275020     2.85966619
Ar     2.87028983     2.87029033    -8.57900044
Ar     2.87028992     5.71215412    -5.71588796
Ar     5.71559867     2.86684665    -5.71588776
Ar     5.71559915     5.71559888    -8.58589213
Ar     2.86670022     2.86670103    -2.85112351
Ar     2.87014537     5.71229861     0.00509722
Ar     5.71574320     2.86670205     0.00509742
Ar     5.71918927     5.71918931    -2.85801520
Ar     2.86655572     2.86655654     2.86655726
Ar     2.86655614     5.71588775     5.71588755
Ar     5.71933361     2.86311156     5.71588735
Ar     5.71933360     5.71933363     2.85966619
 108
Step =     4, Time =      0.02000000
Ar    -8.57900085    -8.57900095    -8.57900126
Ar    -8.57900088    -5.71449729    -5.71450027
Ar    -5.70966039    -8.58383403    -5.71449975
Ar    -5.70965928    -5.70966170    -8.58866940
Ar    -8.58403554    -8.58403474    -2.84768047
Ar    -8.57920187    -5.71429648     0.00715191
Ar    -5.70945946    -8.58403507     0.00715245
Ar    -5.70462314    -5.70462467    -2.85734857
Ar    -8.58423628    -8.58423548     2.86933178
Ar    -8.58423550    -5.70926316     5.71449959
Ar    -5.70442265    -8.58907216     5.71449904
Ar    -5.70442284    -5.70442440     2.85966556
Ar    -8.58464128    -2.84177808    -8.57900149
Ar    -8.57940361     0.00781852    -5.71450206
Ar    -5.70401901    -2.84661216    -5.71449534
Ar    -5.70925729     0.01265252    -8.58866770
Ar    -8.58967873    -2.84681150    -2.84767899
Ar    -8.57960466     0.00801941     0.00715012
Ar    -5.70381816    -2.84681568     0.00715557
Ar    -5.70422121     0.01768712    -2.85734857
Ar    -8.58987939    -2.84701475     2.86933468
Ar    -8.58463816     0.01305024     5.71449952
Ar    -5.69877850    -2.85185251     5.71450036
Ar    -5.70402084     0.01788744     2.85966553
Ar    -8.58504389     2.87456784    -8.57900147
Ar    -8.58504412     5.70926217    -5.71450375
Ar    -5.70361717     2.86973552    -5.71449527
Ar    -5.70361585     5.71409780    -8.58867084
Ar    -8.59008120     2.86953691    -2.84768075
Ar    -8.58524507     5.70946549     0.00714706
Ar    -5.70341625     2.86953186     0.00715565
Ar    -5.69857689     5.71913198    -2.85734999
Ar    -8.59028192     2.86933355     2.86933289
Ar    -8.59028137     5.71449594     5.71449466
Ar    -5.69837666     2.86449749     5.71450223
Ar    -5.69837658     5.71933483     2.85966552
Ar    -2.83466329    -8.57900151    -8.57900115
Ar    -2.83466293    -5.71449688    -5.71449726
Ar     0.01372042    -8.58383145    -5.71450228
Ar     0.01372158    -5.70966422    -8.58866681
Ar    -2.83969927    -8.58403874    -2.84768083
Ar    -2.83486625    -5.71429602     0.00715357
Ar     0.01392154    -8.58403253     0.00715000
Ar     0.01875432    -5.70462711    -2.85734853
Ar    -2.83990245    -8.58423954     2.86933289
Ar    -2.83990109    -5.70925928     5.71450176
Ar     0.01895499    -8.58906970     5.71449910
Ar     0.01895477    -5.70442680     2.85966549
Ar    -2.84030596    -2.84177820    -8.57900141
Ar    -2.83506894     0.00781696    -5.71449904
Ar     0.01935840    -2.84661193    -5.71449778
Ar     0.01412382     0.01265014    -8.58866511
Ar    -2.84534479    -2.84681504    -2.84767921
Ar    -2.83527233     0.00801789     0.00715179
Ar     0.01955944    -2.84681549     0.00715320
Ar     0.01915649     0.01768482    -2.85734854
Ar    -2.84554796    -2.84701833     2.86933596
Ar    -2.84030709     0.01305219     5.71450169
Ar     0.02459582    -2.85185240     5.71450041
Ar     0.01935702     0.01788518     2.85966546
Ar    -2.84071197     2.87456980    -8.57900140
Ar    -2.84071181     5.70926003    -5.71450063
Ar     0.01976044     2.86973557    -5.71449771
Ar     0.01976184     5.71409779    -8.58866832
Ar    -2.84575072     2.86953543    -2.84768097
Ar    -2.84091518     5.70946340     0.00714878
Ar     0.01996155     2.86953187     0.00715329
Ar     0.02479747     5.71913206    -2.85734995
Ar    -2.84595396     2.86933201     2.86933417
Ar    -2.84595284     5.71449727     5.71449672
Ar     0.02499787     2.86449741     5.71450229
Ar     0.02499794     5.71933495     2.85966545
Ar     2.88061123    -8.57900143    -8.57900110
Ar     2.88061173    -5.71449690    -5.71449731
Ar     5.70804721    -8.58382984    -5.71450475
Ar     5.70804845    -5.70966600    -8.58866784
Ar     2.87557876    -8.58403866    -2.84768342
Ar     2.88040813    -5.71429601     0.00715360
Ar     5.70825070    -8.58403097     0.00714606
Ar     5.71308231    -5.70462529    -2.85735025
Ar     2.87537533    -8.58423949     2.86933018
Ar     2.87537689    -5.70925927     5.71450453
Ar     5.71328552    -8.58907177     5.71449566
Ar     5.71328516    -5.70442493     2.85966522
Ar     2.87497201    -2.84178064    -8.57900137
Ar     2.88020532     0.00781710    -5.71449909
Ar     5.71368732    -2.84660994    -5.71450015
Ar     5.70845393     0.01264628    -8.58866615
Ar     2.86993661    -2.84681747    -2.84768172
Ar     2.88000165     0.00801807     0.00715182
Ar     5.71389082    -2.84681355     0.00714933
Ar     5.71348780     0.01768461    -2.85735025
Ar     2.86973319    -2.84702080     2.86933334
Ar     2.87497048     0.01305236     5.71450445
Ar     5.71892866    -2.85185406     5.71449687
Ar     5.71369072     0.01788502     2.85966519
Ar     2.87456564     2.87456715    -8.57900136
Ar     2.87456591     5.70926271    -5.71450068
Ar     5.71409275     2.86973975    -5.71450007
Ar     5.71409424     5.71409341    -8.58866955
Ar     2.86953031     2.86953279    -2.84768347
Ar     2.87436226     5.70946612     0.00714881
Ar     5.71429631     2.86953599     0.00714942
Ar     5.71913116     5.71913129    -2.85735168
Ar     2.86932682     2.86932934     2.86933156
Ar     2.86932812     5.71449998     5.71449939
Ar     5.71933415     2.86449790     5.71449874
Ar     5.71933411     5.71933423     2.85966521
 108
Step =     5, Time =      0.02500000
Ar    -8.57900195    -8.57900215    -8.57900284
Ar    -8.57900202    -5.71310654    -5.71311318
Ar    -5.70687785    -8.58522230    -5.71311206
Ar    -5.70687543    -5.70688083    -8.59144754
Ar    -8.58548118    -8.58547939    -2.84423848
Ar    -8.57925970    -5.71284923     0.00920539
Ar    -5.70662028    -8.58548008     0.00920658
Ar    -5.70039296    -5.70039642    -2.85668303
Ar    -8.58573830    -8.58573651     2.87210453
Ar    -8.58573661    -5.70637305     5.71311173
Ar    -5.70013644    -8.59196455     5.71311054
Ar    -5.70013681    -5.70014036     2.85966421
Ar    -8.58626046    -2.83664068    -8.57900334
Ar    -8.57951907     0.01006606    -5.71311718
Ar    -5.69961720    -2.84286305    -5.71310226
Ar    -5.70635999     0.01628821    -8.59144374
Ar    -8.59274580    -2.84311710    -2.84423523
Ar    -8.57977689     0.01032351     0.00920138
Ar    -5.69935983    -2.84312641     0.00921355
Ar    -5.69987767     0.02276719    -2.85668306
Ar    -8.59300270    -2.84337987     2.87211098
Ar    -8.58625345     0.01679404     5.71311158
Ar    -5.69286960    -2.84961039     5.71311350
Ar    -5.69962136     0.02302332     2.85966411
Ar    -8.58677721     2.87884221    -8.57900329
Ar    -8.58677771     5.70637095    -5.71312105
Ar    -5.69910215     2.87262384    -5.71310212
Ar    -5.69909929     5.71259686    -8.59145068
Ar    -8.59326217     2.87237147    -2.84423925
Ar    -8.58703526     5.70663386     0.00919442
Ar    -5.69884463     2.87236012     0.00921370
Ar    -5.69261050     5.71907485    -2.85668625
Ar    -8.59351921     2.87210841     2.87210688
Ar    -8.59351806     5.71310350     5.71310064
Ar    -5.69235457     2.86588169     5.71311776
Ar    -5.69235434     5.71933672     2.85966409
Ar    -2.82748232    -8.57900337    -8.57900257
Ar    -2.82748154    -5.71310564    -5.71310653
Ar     0.01766275    -8.58521654    -5.71311770
Ar     0.01766535    -5.70688646    -8.59144170
Ar    -2.83396443    -8.58548829    -2.84423927
Ar    -2.82774442    -5.71284824     0.00920908
Ar     0.01792072    -8.58547440     0.00920109
Ar     0.02414015    -5.70040181    -2.85668297
Ar    -2.83422704    -8.58574552     2.87210703
Ar    -2.83422393    -5.70636443     5.71311663
Ar     0.02439706    -8.59195911     5.71311065
Ar     0.02439660    -5.70014566     2.85966402
Ar    -2.83474576    -2.83664096    -8.57900316
Ar    -2.82800591     0.01006256    -5.71311052
Ar     0.02491574    -2.84286251    -5.71310764
Ar     0.01818129     0.01628288    -8.59143792
Ar    -2.84123428    -2.84312496    -2.84423562
Ar    -2.82826894     0.01032012     0.00920508
Ar     0.02517351    -2.84312595     0.00920832
Ar     0.02465597     0.02276209    -2.85668300
Ar    -2.84149690    -2.84338785     2.87211402
Ar    -2.83474828     0.01679840     5.71311646
Ar     0.03165647    -2.84961017     5.71311362
Ar     0.02491257     0.02301831     2.85966392
Ar    -2.83527023     2.87884668    -8.57900314
Ar    -2.83526991     5.70636610    -5.71311410
Ar     0.02543116     2.87262397    -5.71310748
Ar     0.02543426     5.71259681    -8.59144511
Ar    -2.84175854     2.87236824    -2.84423963
Ar    -2.83553292     5.70662911     0.00919828
Ar     0.02568907     2.87236016     0.00920849
Ar     0.03191564     5.71907504    -2.85668617
Ar    -2.84202133     2.87210505     2.87210994
Ar    -2.84201878     5.71310639     5.71310517
Ar     0.03217189     2.86588149     5.71311787
Ar     0.03217209     5.71933700     2.85966391
Ar     2.88661818    -8.57900321    -8.57900250
Ar     2.88661928    -5.71310567    -5.71310667
Ar     5.70480456    -8.58521280    -5.71312337
Ar     5.70480745    -5.70689057    -8.59144385
Ar     2.88014402    -8.58548808    -2.84424521
Ar     2.88635571    -5.71284820     0.00920910
Ar     5.70506783    -8.58547077     0.00919210